/*--------------------------------*- C++ -*----------------------------------*\
| =========                 |                                                 |
| \\      /  F ield         | OpenFOAM: The Open Source CFD Toolbox           |
|  \\    /   O peration     | Version:  2.3.1                                 |
|   \\  /    A nd           | Web:      www.OpenFOAM.org                      |
|    \\/     M anipulation  |                                                 |
\*---------------------------------------------------------------------------*/

FoamFile
{
	version	2.0;
	format	ascii;
	class	volScalarField;
	object	ElPot;
}

// * * * * * * * * * * * * * * * * * * * * * * * * * * * * * * * * * * * * * * //

dimensions		[ 1 2 -3 0 0 -1 0 ];		// [ ( kg * m^2 ) / ( A * s^3 )  ]

internalField	uniform 0;

boundaryField
{
	defaultFaces
    {
		type 	zeroGradient;
	}
    Electrode0
    {
        type    fixedValue;
        value nonuniform List<scalar> 
        363
        (
0.0074292
0.00770221
0.00733323
0.00706879
0.00773354
0.00692106
0.00706404
0.00746332
0.00692435
0.00784204
0.00701523
0.00765967
0.00723266
0.00688516
0.00755154
0.00708613
0.00689809
0.00800119
0.00731387
0.00727167
0.0076498
0.00753536
0.00694
0.00786229
0.00710799
0.00741934
0.00719479
0.00694824
0.00777362
0.00689
0.00723516
0.00772737
0.00772119
0.00725462
0.00735123
0.00732955
0.00741612
0.00690254
0.00781682
0.00797039
0.00731595
0.00807827
0.00796843
0.00753781
0.00770019
0.0069954
0.00790199
0.00758611
0.00748564
0.00748835
0.00727447
0.00765719
0.00693896
0.00699962
0.00737402
0.00762066
0.00779709
0.00741182
0.0078316
0.00752734
0.0073805
0.00717679
0.00756494
0.00749714
0.00721878
0.00721704
0.00752138
0.00800173
0.00705739
0.00696832
0.00708365
0.00769862
0.00794403
0.00706619
0.00807459
0.00717616
0.00692215
0.00791573
0.00755683
0.00689662
0.00744637
0.00804657
0.00725492
0.00702646
0.00736279
0.00720038
0.00730412
0.00741387
0.00774971
0.00710085
0.00758412
0.0077571
0.00731164
0.00785139
0.00742406
0.00708453
0.00804113
0.00806166
0.00688172
0.00769275
0.00735044
0.00691177
0.00717369
0.00798036
0.00752072
0.00743277
0.0074325
0.0074565
0.00712323
0.00783286
0.00801911
0.00741214
0.00791441
0.00800662
0.00763658
0.00714482
0.00746945
0.00752853
0.00746968
0.00690436
0.0069713
0.00727827
0.00787963
0.00758573
0.0075272
0.00774887
0.00751185
0.00754479
0.00718455
0.00793323
0.00804765
0.00690512
0.00774157
0.00731922
0.00704552
0.00747
0.00791071
0.00756131
0.00706232
0.00705879
0.007142
0.00765704
0.00762472
0.00804891
0.00765139
0.00761737
0.00721846
0.00700026
0.00761935
0.00731734
0.00699617
0.00735567
0.00793977
0.00802382
0.00764873
0.00730149
0.00808169
0.00729104
0.00802634
0.00723353
0.00709488
0.00742826
0.00776244
0.00791699
0.00705337
0.00720698
0.00709966
0.00721894
0.00757604
0.00722365
0.00693364
0.00742695
0.00695272
0.00705526
0.00700698
0.00781664
0.00738164
0.00801085
0.00696439
0.00779401
0.00714825
0.00787166
0.0071019
0.00801119
0.00736771
0.00749211
0.00705318
0.0070938
0.00713698
0.00700776
0.0071273
0.0076454
0.0071943
0.00716647
0.00746668
0.00731171
0.00729602
0.00703618
0.00700954
0.0071054
0.00690256
0.00749168
0.00717405
0.00693721
0.00768556
0.00771136
0.00726405
0.00792189
0.00752144
0.00782434
0.00807565
0.0080311
0.007019
0.00702362
0.00692115
0.00755446
0.0076658
0.00736091
0.00783867
0.0069804
0.00792371
0.00735507
0.0078219
0.00725215
0.00785916
0.00715929
0.00803568
0.00747819
0.00792991
0.00689174
0.00715376
0.00752166
0.00693759
0.00783457
0.00775605
0.0075226
0.00763863
0.00697711
0.00699881
0.00731814
0.00696944
0.00713691
0.00740257
0.00730755
0.00796476
0.00744593
0.00783574
0.0068917
0.00693094
0.00765673
0.00752694
0.00775199
0.00721442
0.00726746
0.00807532
0.00722267
0.00780715
0.00774702
0.00699772
0.00804551
0.00714868
0.00786501
0.00714271
0.00755191
0.00798203
0.00807768
0.00741641
0.00731842
0.00724025
0.00802821
0.00694497
0.00766114
0.00797414
0.00718241
0.007482
0.0070939
0.00720988
0.00801849
0.00771173
0.00722134
0.0071946
0.00731587
0.00688913
0.00786512
0.0076152
0.0077403
0.00730354
0.00801424
0.00773595
0.00699686
0.0070756
0.00747471
0.0071757
0.00754486
0.0079744
0.00697574
0.00722609
0.00725557
0.00704078
0.00753079
0.00784794
0.00769143
0.00716173
0.00794178
0.00785587
0.00689733
0.00775372
0.00711265
0.00777918
0.00728644
0.00792757
0.00692129
0.00765796
0.00745859
0.00742588
0.00718902
0.00792363
0.00754356
0.00721368
0.00759258
0.00792857
0.00728304
0.00791773
0.00697631
0.00740247
0.00728879
0.00752708
0.00799596
0.00765352
0.00784
0.00777358
0.00699369
0.00732029
0.00736873
0.00766648
0.00707594
0.00794432
0.0074419
0.00697297
0.00705735
0.00731235
0.00793136
0.00764204
0.00697202
0.00790219
0.00707442
0.00779212
0.00756465
0.00789409
0.00724823
0.00791403
0.00704852
0.00700577
0.00795728
0.00779256
0.00783267
0.00764384
0.00750384
0.00769383
0.00774035
0.0076968
0.00739085
0.00773477
        );
    }

    Electrode1
    {
        type    fixedValue;
        value nonuniform List<scalar> 
        320
        (
-0.00792958
-0.00888765
-0.00895921
-0.00891602
-0.00859731
-0.00863192
-0.00826975
-0.00786174
-0.00892941
-0.00785003
-0.00805765
-0.00893264
-0.00820004
-0.00817895
-0.00860449
-0.00864918
-0.00782082
-0.0087501
-0.00873031
-0.00865984
-0.00810482
-0.00840466
-0.00897744
-0.00886107
-0.00770816
-0.0086824
-0.00816338
-0.00767424
-0.00805746
-0.00796376
-0.00810936
-0.00882424
-0.00847847
-0.00792117
-0.00868015
-0.00765441
-0.00884288
-0.00783344
-0.00784886
-0.00843589
-0.00795024
-0.00853076
-0.00799279
-0.00772512
-0.00866425
-0.00789348
-0.00776151
-0.00871137
-0.00852339
-0.00888107
-0.00782452
-0.00767059
-0.00881248
-0.00790171
-0.00791513
-0.00780046
-0.00790434
-0.00864056
-0.00894361
-0.00795062
-0.00856052
-0.00779967
-0.00790628
-0.00887846
-0.00770806
-0.00815593
-0.00791082
-0.0085658
-0.00822821
-0.00834617
-0.00797792
-0.00839784
-0.00794704
-0.00818051
-0.008766
-0.00821978
-0.0082965
-0.00829306
-0.00892993
-0.00765975
-0.00771172
-0.00888878
-0.00895902
-0.00882407
-0.00878827
-0.0077686
-0.00774699
-0.00840643
-0.00874477
-0.00876092
-0.00818825
-0.00845917
-0.00772128
-0.00833785
-0.00872772
-0.00790398
-0.00884938
-0.00799943
-0.00774955
-0.0086368
-0.0082541
-0.00801302
-0.00796465
-0.00843937
-0.00810469
-0.00777811
-0.00848914
-0.00763967
-0.00822134
-0.00786335
-0.00852415
-0.00875143
-0.00844344
-0.00828971
-0.00847803
-0.00863026
-0.00866321
-0.00808858
-0.0080318
-0.00815179
-0.00842294
-0.00895982
-0.00824349
-0.00864285
-0.00802635
-0.00891918
-0.00857106
-0.00861146
-0.00764813
-0.00878846
-0.00799128
-0.00769665
-0.00803722
-0.0084621
-0.00814545
-0.00788112
-0.00809746
-0.0089006
-0.00806626
-0.00829728
-0.00800161
-0.00781184
-0.0076453
-0.00778554
-0.00766206
-0.00841975
-0.0088447
-0.00835499
-0.00889958
-0.00783675
-0.0083758
-0.00763461
-0.00872571
-0.00855494
-0.00765749
-0.00821183
-0.0085988
-0.00882125
-0.00764231
-0.00765957
-0.00834741
-0.00891142
-0.00884051
-0.0083509
-0.00850505
-0.0079244
-0.00794228
-0.00786772
-0.00881426
-0.00824919
-0.00826019
-0.00787626
-0.00847894
-0.00824369
-0.00894609
-0.00837099
-0.00851963
-0.00879379
-0.00881233
-0.00869501
-0.00780837
-0.00800756
-0.0085302
-0.00869572
-0.00770497
-0.00833278
-0.0079682
-0.00834097
-0.00808475
-0.00813775
-0.00771815
-0.00876697
-0.0084187
-0.00842953
-0.00783292
-0.00824089
-0.00840025
-0.00780263
-0.00886749
-0.00848761
-0.0081485
-0.00849325
-0.00873034
-0.00838928
-0.00809248
-0.00778877
-0.00790088
-0.00780844
-0.00816822
-0.00877586
-0.00869103
-0.00823396
-0.0089276
-0.00823464
-0.00803023
-0.00858563
-0.0084367
-0.00873938
-0.00891509
-0.0087854
-0.00796145
-0.00823079
-0.00771135
-0.00777551
-0.00810468
-0.00854443
-0.00825954
-0.00809898
-0.00840126
-0.00875516
-0.0083947
-0.00810293
-0.00772975
-0.00834107
-0.00854608
-0.00797396
-0.00800855
-0.00853038
-0.00860656
-0.00763967
-0.00813665
-0.00797122
-0.00813702
-0.00782685
-0.00826874
-0.00778289
-0.00789801
-0.00862413
-0.00821126
-0.00831251
-0.00773794
-0.00774759
-0.00835931
-0.00776085
-0.00884727
-0.00822839
-0.0086898
-0.00852998
-0.00820246
-0.00803118
-0.00774341
-0.00864848
-0.00809815
-0.00763481
-0.00896427
-0.00832367
-0.00793153
-0.00793253
-0.00894328
-0.00797209
-0.00776889
-0.00823913
-0.00881272
-0.00886862
-0.00882996
-0.00823402
-0.00801862
-0.00763366
-0.00780486
-0.00816154
-0.00827329
-0.00893188
-0.00867776
-0.00889779
-0.00800971
-0.00857913
-0.00848531
-0.0089792
-0.00814068
-0.00815514
-0.00850835
-0.00856578
-0.00781753
-0.00841089
-0.00779341
-0.00831185
-0.00831372
-0.00825026
-0.00840355
-0.00806582
-0.00828184
-0.00774008
-0.00812672
-0.00831221
-0.00773302
-0.00848121
-0.00841796
-0.00816579
-0.00818502
-0.00870339
-0.00868291
-0.00860356
-0.00768282
-0.00851324
-0.00794952
-0.00857902
-0.00881428
-0.00802437
-0.00838899
-0.00802574
        );
    }
}

// *************************************************************************** //
