/*--------------------------------*- C++ -*----------------------------------*\
| =========                 |                                                 |
| \\      /  F ield         | OpenFOAM: The Open Source CFD Toolbox           |
|  \\    /   O peration     | Version:  2.3.1                                 |
|   \\  /    A nd           | Web:      www.OpenFOAM.org                      |
|    \\/     M anipulation  |                                                 |
\*---------------------------------------------------------------------------*/

FoamFile
{
	version	2.0;
	format	ascii;
	class	volScalarField;
	object	ElPot;
}

// * * * * * * * * * * * * * * * * * * * * * * * * * * * * * * * * * * * * * * //

dimensions		[ 1 2 -3 0 0 -1 0 ];		// [ ( kg * m^2 ) / ( A * s^3 )  ]

internalField	uniform 0;

boundaryField
{
	defaultFaces
    {
		type 	zeroGradient;
	}
    Electrode0
    {
        type    fixedValue;
        value nonuniform List<scalar> 
        129
        (
-0.0076464
-0.00889579
-0.00877051
-0.00836741
-0.00868017
-0.00867821
-0.0086344
-0.00799056
-0.00786332
-0.00770043
-0.00768647
-0.00834744
-0.00847854
-0.00777891
-0.00771461
-0.00853028
-0.00872941
-0.0083125
-0.00842261
-0.00790326
-0.00792767
-0.00831094
-0.00843114
-0.00815871
-0.00762184
-0.00895305
-0.00766452
-0.00791283
-0.00813559
-0.0080627
-0.00841649
-0.00786821
-0.00794185
-0.00786262
-0.00763791
-0.00761909
-0.00866554
-0.0081247
-0.00839461
-0.00792046
-0.00835621
-0.00870627
-0.00871104
-0.00769259
-0.00775961
-0.00852437
-0.0076319
-0.00809086
-0.0080932
-0.00762456
-0.00892071
-0.00893437
-0.00792027
-0.00782199
-0.00846927
-0.00838853
-0.00779022
-0.00853062
-0.00796242
-0.00849777
-0.00781212
-0.00873687
-0.00768437
-0.00784929
-0.00804992
-0.00780237
-0.00792107
-0.00871257
-0.0076999
-0.0080213
-0.00786063
-0.00777416
-0.00878972
-0.00822572
-0.00783227
-0.00815084
-0.00761276
-0.00884972
-0.00784102
-0.00881203
-0.008067
-0.00829644
-0.00826191
-0.00830986
-0.00848111
-0.00782944
-0.00879789
-0.0085586
-0.00796311
-0.00826145
-0.00881317
-0.00851212
-0.00891591
-0.00850264
-0.00836496
-0.00784468
-0.00761463
-0.00808947
-0.00826185
-0.00809464
-0.00779167
-0.008257
-0.0078033
-0.00876091
-0.00786632
-0.00804236
-0.0084875
-0.00852528
-0.00805001
-0.0081481
-0.00863044
-0.00856575
-0.00810645
-0.00815791
-0.00881201
-0.00771218
-0.00811578
-0.0081221
-0.00885722
-0.00818977
-0.00860162
-0.00821297
-0.00788032
-0.00893793
-0.0083805
-0.00826707
-0.008477
-0.00801762
-0.00832797
        );
    }

    Electrode1
    {
        type    fixedValue;
        value nonuniform List<scalar> 
        150
        (
0.00775742
0.00707971
0.00713609
0.00707464
0.00760996
0.00721508
0.00803852
0.00786064
0.00736772
0.00691763
0.00736851
0.00687238
0.00753346
0.00764348
0.00727732
0.00754713
0.00721152
0.0079854
0.0070406
0.00741273
0.00774849
0.00732512
0.00741766
0.00726215
0.00760559
0.0074525
0.00688364
0.00700003
0.00756495
0.00749455
0.00780084
0.00728447
0.00762419
0.00776174
0.00701419
0.00806237
0.00732748
0.00708811
0.00702589
0.00790055
0.00731541
0.00738545
0.00788835
0.00737728
0.00805601
0.00700315
0.00693509
0.00703841
0.00782175
0.00785603
0.0069107
0.00780095
0.00695041
0.00786848
0.00807459
0.0077204
0.00721969
0.00694567
0.00793078
0.00766105
0.00716139
0.00777181
0.00739712
0.00770774
0.00804825
0.00798381
0.00740569
0.00751439
0.00774809
0.00725449
0.00802419
0.00798312
0.00688898
0.00725607
0.00782645
0.00798158
0.00746419
0.00748887
0.00714924
0.00713506
0.00794657
0.0073217
0.00724525
0.00732097
0.0072991
0.00773473
0.00709891
0.00690167
0.00687221
0.00796837
0.0080079
0.00756056
0.00791022
0.00795633
0.00790306
0.00711407
0.00787332
0.00758537
0.00794368
0.00713369
0.00729698
0.00769626
0.00748592
0.00781067
0.00714549
0.00747303
0.00710317
0.00700561
0.00787457
0.00768754
0.00766397
0.00805352
0.00694117
0.007138
0.00707573
0.00714903
0.0077482
0.00704901
0.0077146
0.00741096
0.00758333
0.006874
0.00708533
0.00741889
0.00762021
0.0072956
0.00716835
0.0072431
0.00772649
0.00707495
0.00754378
0.00765329
0.00747051
0.00758443
0.00766587
0.00737434
0.00776698
0.0070517
0.00743336
0.00757262
0.0070991
0.00699926
0.0071979
0.00696325
0.00751364
0.00698101
0.00737063
0.00733944
0.00697508
0.00708668
        );
    }
}

// *************************************************************************** //
